 DBCSR| CPU Multiplication driver                                           BLAS (U)
 DBCSR| Multrec recursion limit                                              512 (U)
 DBCSR| Multiplication stack size                                           1000 (D)
 DBCSR| Maximum elements for images                                    UNLIMITED (U)
 DBCSR| Multiplicative factor virtual images                                   1 (U)
 DBCSR| Use multiplication densification                                       T (D)
 DBCSR| Multiplication size stacks                                             3 (U)
 DBCSR| Use memory pool for CPU allocation                                     F (U)
 DBCSR| Number of 3D layers                                               SINGLE (U)
 DBCSR| Use MPI memory allocation                                              F (U)
 DBCSR| Use RMA algorithm                                                      F (U)
 DBCSR| Use Communication thread                                               T (U)
 DBCSR| Communication thread load                                             60 (D)
 DBCSR| MPI: My process id                                                     0
 DBCSR| MPI: Number of processes                                             192
 DBCSR| OMP: Current number of threads                                         8
 DBCSR| OMP: Max number of threads                                             8
 DBCSR| Split modifier for TAS multiplication algorithm                  1.0E+00 (U)


  **** **** ******  **  PROGRAM STARTED AT               2024-12-20 18:37:10.690
 ***** ** ***  *** **   PROGRAM STARTED ON                          i02r05c06s09
 **    ****   ******    PROGRAM STARTED BY                               di38fab
 ***** **    ** ** **   PROGRAM PROCESS ID                               3549550
  **** **  *******  **  PROGRAM STARTED IN /hppfs/scratch/04/di38fab/04_TMD/GROU
                                           PSIZEtest/GS2

 CP2K| version string:                 CP2K version 2024.3 (Development Version)
 CP2K| source code revision number:                             unknown revision
 CP2K| cp2kflags: omp libint fftw3 libxc parallel scalapack max_contr=4         
 CP2K| is freely available from                            https://www.cp2k.org/
 CP2K| Program compiled at                       Wed 18 Dec 2024 05:54:22 PM CET
 CP2K| Program compiled on                                               login01
 CP2K| Program compiled for                                        Supermuc-foss
 CP2K| Data directory path                  /hppfs/work/pn36zo/di38fab/cp2k/data
 CP2K| Input file name                                                    GW.inp

 GLOBAL| Force Environment number                                              1
 GLOBAL| Basis set file name            /hppfs/work/pn36zo/di38fab/cp2k/data/BAS
 GLOBAL| Potential file name            /hppfs/work/pn36zo/di38fab/cp2k/data/GTH
 GLOBAL| MM Potential file name                                     MM_POTENTIAL
 GLOBAL| Coordinate file name                                      __STD_INPUT__
 GLOBAL| Method name                                                        CP2K
 GLOBAL| Project name                                                       MoS2
 GLOBAL| Run type                                                         ENERGY
 GLOBAL| FFT library                                                       FFTW3
 GLOBAL| Diagonalization library                                       ScaLAPACK
 GLOBAL| DGEMM library                                                      BLAS
 GLOBAL| Orthonormality check for eigenvectors                          DISABLED
 GLOBAL| Matrix multiplication library                                 ScaLAPACK
 GLOBAL| All-to-all communication in single precision                          F
 GLOBAL| FFTs using library dependent lengths                                  F
 GLOBAL| Grid backend                                                       AUTO
 GLOBAL| Global print level                                               MEDIUM
 GLOBAL| MPI I/O enabled                                                       T
 GLOBAL| Total number of message passing processes                           192
 GLOBAL| Number of threads for this process                                    8
 GLOBAL| This output is from process                                           0
 GLOBAL| OpenMP stack size per thread (OMP_STACKSIZE)                    default
 GLOBAL| CPU model name             Intel(R) Xeon(R) Platinum 8174 CPU @ 3.10GHz

 MEMORY| system memory details [Kb]
 MEMORY|                        rank 0           min           max       average
 MEMORY| MemTotal             98436660      98433616      98436944      98436591
 MEMORY| MemFree              85273556      84933256      85746380      85234762
 MEMORY| Buffers                     0             0             0             0
 MEMORY| Cached                2368932       2360512       2394780       2376858
 MEMORY| Slab                  1165272       1068028       1176652       1158580
 MEMORY| SReclaimable           258304        240932        265572        259834
 MEMORY| MemLikelyFree        87900792      87580944      88354804      87871454


 *** Fundamental physical constants (SI units) ***

 *** Literature: B. J. Mohr and B. N. Taylor,
 ***             CODATA recommended values of the fundamental physical
 ***             constants: 2006, Web Version 5.1
 ***             http://physics.nist.gov/constants

 Speed of light in vacuum [m/s]                             2.99792458000000E+08
 Magnetic constant or permeability of vacuum [N/A**2]       1.25663706143592E-06
 Electric constant or permittivity of vacuum [F/m]          8.85418781762039E-12
 Planck constant (h) [J*s]                                  6.62606896000000E-34
 Planck constant (h-bar) [J*s]                              1.05457162825177E-34
 Elementary charge [C]                                      1.60217648700000E-19
 Electron mass [kg]                                         9.10938215000000E-31
 Electron g factor [ ]                                     -2.00231930436220E+00
 Proton mass [kg]                                           1.67262163700000E-27
 Fine-structure constant                                    7.29735253760000E-03
 Rydberg constant [1/m]                                     1.09737315685270E+07
 Avogadro constant [1/mol]                                  6.02214179000000E+23
 Boltzmann constant [J/K]                                   1.38065040000000E-23
 Atomic mass unit [kg]                                      1.66053878200000E-27
 Bohr radius [m]                                            5.29177208590000E-11

 *** Conversion factors ***

 [u] -> [a.u.]                                              1.82288848426455E+03
 [Angstrom] -> [Bohr] = [a.u.]                              1.88972613288564E+00
 [a.u.] = [Bohr] -> [Angstrom]                              5.29177208590000E-01
 [a.u.] -> [s]                                              2.41888432650478E-17
 [a.u.] -> [fs]                                             2.41888432650478E-02
 [a.u.] -> [J]                                              4.35974393937059E-18
 [a.u.] -> [N]                                              8.23872205491840E-08
 [a.u.] -> [K]                                              3.15774647902944E+05
 [a.u.] -> [kJ/mol]                                         2.62549961709828E+03
 [a.u.] -> [kcal/mol]                                       6.27509468713739E+02
 [a.u.] -> [Pa]                                             2.94210107994716E+13
 [a.u.] -> [bar]                                            2.94210107994716E+08
 [a.u.] -> [atm]                                            2.90362800883016E+08
 [a.u.] -> [eV]                                             2.72113838565563E+01
 [a.u.] -> [Hz]                                             6.57968392072181E+15
 [a.u.] -> [1/cm] (wave numbers)                            2.19474631370540E+05
 [a.u./Bohr**2] -> [1/cm]                                   5.14048714338585E+03
 

 CELL_TOP| Volume [angstrom^3]:                                       131.694613
 CELL_TOP| Vector a [angstrom     3.184     0.000     0.000   |a| =     3.184000
 CELL_TOP| Vector b [angstrom    -1.592     2.757     0.000   |b| =     3.184000
 CELL_TOP| Vector c [angstrom     0.000     0.000    15.000   |c| =    15.000000
 CELL_TOP| Angle (b,c), alpha [degree]:                                90.000000
 CELL_TOP| Angle (a,c), beta  [degree]:                                90.000000
 CELL_TOP| Angle (a,b), gamma [degree]:                               120.000000
 CELL_TOP| Numerically orthorhombic:                                          NO
 CELL_TOP| Periodicity                                                        XY

 GENERATE|  Preliminary Number of Bonds generated:                             0
 GENERATE|  Achieved consistency in connectivity generation.

 CELL| Volume [angstrom^3]:                                           131.694613
 CELL| Vector a [angstrom]:       3.184     0.000     0.000   |a| =     3.184000
 CELL| Vector b [angstrom]:      -1.592     2.757     0.000   |b| =     3.184000
 CELL| Vector c [angstrom]:       0.000     0.000    15.000   |c| =    15.000000
 CELL| Angle (b,c), alpha [degree]:                                    90.000000
 CELL| Angle (a,c), beta  [degree]:                                    90.000000
 CELL| Angle (a,b), gamma [degree]:                                   120.000000
 CELL| Numerically orthorhombic:                                              NO
 CELL| Periodicity                                                            XY

 CELL_REF| Volume [angstrom^3]:                                       131.694613
 CELL_REF| Vector a [angstrom     3.184     0.000     0.000   |a| =     3.184000
 CELL_REF| Vector b [angstrom    -1.592     2.757     0.000   |b| =     3.184000
 CELL_REF| Vector c [angstrom     0.000     0.000    15.000   |c| =    15.000000
 CELL_REF| Angle (b,c), alpha [degree]:                                90.000000
 CELL_REF| Angle (a,c), beta  [degree]:                                90.000000
 CELL_REF| Angle (a,b), gamma [degree]:                               120.000000
 CELL_REF| Numerically orthorhombic:                                          NO
 CELL_REF| Periodicity                                                        XY

 *** WARNING in cryssym.F:180 :: Symmetry library SPGLIB not available ***


 *******************************************************************************
                                    Kpoints
 *******************************************************************************
 BRILLOUIN| K-point scheme                                        Monkhorst-Pack
 BRILLOUIN| K-Point grid                                            32   32    1
 BRILLOUIN| Accuracy in Symmetry determination                      0.100000E-05
 BRILLOUIN| K-Point point group symmetrization                               OFF
 BRILLOUIN| Wavefunction type                                            COMPLEX
 BRILLOUIN| List of Kpoints [2 Pi/Bohr]                                      512
 BRILLOUIN| Number           Weight            X              Y              Z
 BRILLOUIN|     1           0.00195       -0.48438       -0.48438        0.00000
 BRILLOUIN|     2           0.00195       -0.48438       -0.45312        0.00000
 BRILLOUIN|     3           0.00195       -0.48438       -0.42188        0.00000
 BRILLOUIN|     4           0.00195       -0.48438       -0.39062        0.00000
 BRILLOUIN|     5           0.00195       -0.48438       -0.35938        0.00000
 BRILLOUIN|     6           0.00195       -0.48438       -0.32812        0.00000
 BRILLOUIN|     7           0.00195       -0.48438       -0.29688        0.00000
 BRILLOUIN|     8           0.00195       -0.48438       -0.26562        0.00000
 BRILLOUIN|     9           0.00195       -0.48438       -0.23438        0.00000
 BRILLOUIN|    10           0.00195       -0.48438       -0.20312        0.00000
 BRILLOUIN|    11           0.00195       -0.48438       -0.17188        0.00000
 BRILLOUIN|    12           0.00195       -0.48438       -0.14062        0.00000
 BRILLOUIN|    13           0.00195       -0.48438       -0.10938        0.00000
 BRILLOUIN|    14           0.00195       -0.48438       -0.07812        0.00000
 BRILLOUIN|    15           0.00195       -0.48438       -0.04688        0.00000
 BRILLOUIN|    16           0.00195       -0.48438       -0.01562        0.00000
 BRILLOUIN|    17           0.00195       -0.48438        0.01562        0.00000
 BRILLOUIN|    18           0.00195       -0.48438        0.04688        0.00000
 BRILLOUIN|    19           0.00195       -0.48438        0.07812        0.00000
 BRILLOUIN|    20           0.00195       -0.48438        0.10938        0.00000
 BRILLOUIN|    21           0.00195       -0.48438        0.14062        0.00000
 BRILLOUIN|    22           0.00195       -0.48438        0.17188        0.00000
 BRILLOUIN|    23           0.00195       -0.48438        0.20312        0.00000
 BRILLOUIN|    24           0.00195       -0.48438        0.23438        0.00000
 BRILLOUIN|    25           0.00195       -0.48438        0.26562        0.00000
 BRILLOUIN|    26           0.00195       -0.48438        0.29688        0.00000
 BRILLOUIN|    27           0.00195       -0.48438        0.32812        0.00000
 BRILLOUIN|    28           0.00195       -0.48438        0.35938        0.00000
 BRILLOUIN|    29           0.00195       -0.48438        0.39062        0.00000
 BRILLOUIN|    30           0.00195       -0.48438        0.42188        0.00000
 BRILLOUIN|    31           0.00195       -0.48438        0.45312        0.00000
 BRILLOUIN|    32           0.00195       -0.48438        0.48438        0.00000
 BRILLOUIN|    33           0.00195       -0.45312       -0.48438        0.00000
 BRILLOUIN|    34           0.00195       -0.45312       -0.45312        0.00000
 BRILLOUIN|    35           0.00195       -0.45312       -0.42188        0.00000
 BRILLOUIN|    36           0.00195       -0.45312       -0.39062        0.00000
 BRILLOUIN|    37           0.00195       -0.45312       -0.35938        0.00000
 BRILLOUIN|    38           0.00195       -0.45312       -0.32812        0.00000
 BRILLOUIN|    39           0.00195       -0.45312       -0.29688        0.00000
 BRILLOUIN|    40           0.00195       -0.45312       -0.26562        0.00000
 BRILLOUIN|    41           0.00195       -0.45312       -0.23438        0.00000
 BRILLOUIN|    42           0.00195       -0.45312       -0.20312        0.00000
 BRILLOUIN|    43           0.00195       -0.45312       -0.17188        0.00000
 BRILLOUIN|    44           0.00195       -0.45312       -0.14062        0.00000
 BRILLOUIN|    45           0.00195       -0.45312       -0.10938        0.00000
 BRILLOUIN|    46           0.00195       -0.45312       -0.07812        0.00000
 BRILLOUIN|    47           0.00195       -0.45312       -0.04688        0.00000
 BRILLOUIN|    48           0.00195       -0.45312       -0.01562        0.00000
 BRILLOUIN|    49           0.00195       -0.45312        0.01562        0.00000
 BRILLOUIN|    50           0.00195       -0.45312        0.04688        0.00000
 BRILLOUIN|    51           0.00195       -0.45312        0.07812        0.00000
 BRILLOUIN|    52           0.00195       -0.45312        0.10938        0.00000
 BRILLOUIN|    53           0.00195       -0.45312        0.14062        0.00000
 BRILLOUIN|    54           0.00195       -0.45312        0.17188        0.00000
 BRILLOUIN|    55           0.00195       -0.45312        0.20312        0.00000
 BRILLOUIN|    56           0.00195       -0.45312        0.23438        0.00000
 BRILLOUIN|    57           0.00195       -0.45312        0.26562        0.00000
 BRILLOUIN|    58           0.00195       -0.45312        0.29688        0.00000
 BRILLOUIN|    59           0.00195       -0.45312        0.32812        0.00000
 BRILLOUIN|    60           0.00195       -0.45312        0.35938        0.00000
 BRILLOUIN|    61           0.00195       -0.45312        0.39062        0.00000
 BRILLOUIN|    62           0.00195       -0.45312        0.42188        0.00000
 BRILLOUIN|    63           0.00195       -0.45312        0.45312        0.00000
 BRILLOUIN|    64           0.00195       -0.45312        0.48438        0.00000
 BRILLOUIN|    65           0.00195       -0.42188       -0.48438        0.00000
 BRILLOUIN|    66           0.00195       -0.42188       -0.45312        0.00000
 BRILLOUIN|    67           0.00195       -0.42188       -0.42188        0.00000
 BRILLOUIN|    68           0.00195       -0.42188       -0.39062        0.00000
 BRILLOUIN|    69           0.00195       -0.42188       -0.35938        0.00000
 BRILLOUIN|    70           0.00195       -0.42188       -0.32812        0.00000
 BRILLOUIN|    71           0.00195       -0.42188       -0.29688        0.00000
 BRILLOUIN|    72           0.00195       -0.42188       -0.26562        0.00000
 BRILLOUIN|    73           0.00195       -0.42188       -0.23438        0.00000
 BRILLOUIN|    74           0.00195       -0.42188       -0.20312        0.00000
 BRILLOUIN|    75           0.00195       -0.42188       -0.17188        0.00000
 BRILLOUIN|    76           0.00195       -0.42188       -0.14062        0.00000
 BRILLOUIN|    77           0.00195       -0.42188       -0.10938        0.00000
 BRILLOUIN|    78           0.00195       -0.42188       -0.07812        0.00000
 BRILLOUIN|    79           0.00195       -0.42188       -0.04688        0.00000
 BRILLOUIN|    80           0.00195       -0.42188       -0.01562        0.00000
 BRILLOUIN|    81           0.00195       -0.42188        0.01562        0.00000
 BRILLOUIN|    82           0.00195       -0.42188        0.04688        0.00000
 BRILLOUIN|    83           0.00195       -0.42188        0.07812        0.00000
 BRILLOUIN|    84           0.00195       -0.42188        0.10938        0.00000
 BRILLOUIN|    85           0.00195       -0.42188        0.14062        0.00000
 BRILLOUIN|    86           0.00195       -0.42188        0.17188        0.00000
 BRILLOUIN|    87           0.00195       -0.42188        0.20312        0.00000
 BRILLOUIN|    88           0.00195       -0.42188        0.23438        0.00000
 BRILLOUIN|    89           0.00195       -0.42188        0.26562        0.00000
 BRILLOUIN|    90           0.00195       -0.42188        0.29688        0.00000
 BRILLOUIN|    91           0.00195       -0.42188        0.32812        0.00000
 BRILLOUIN|    92           0.00195       -0.42188        0.35938        0.00000
 BRILLOUIN|    93           0.00195       -0.42188        0.39062        0.00000
 BRILLOUIN|    94           0.00195       -0.42188        0.42188        0.00000
 BRILLOUIN|    95           0.00195       -0.42188        0.45312        0.00000
 BRILLOUIN|    96           0.00195       -0.42188        0.48438        0.00000
 BRILLOUIN|    97           0.00195       -0.39062       -0.48438        0.00000
 BRILLOUIN|    98           0.00195       -0.39062       -0.45312        0.00000
 BRILLOUIN|    99           0.00195       -0.39062       -0.42188        0.00000
 BRILLOUIN|   100           0.00195       -0.39062       -0.39062        0.00000
 BRILLOUIN|   101           0.00195       -0.39062       -0.35938        0.00000
 BRILLOUIN|   102           0.00195       -0.39062       -0.32812        0.00000
 BRILLOUIN|   103           0.00195       -0.39062       -0.29688        0.00000
 BRILLOUIN|   104           0.00195       -0.39062       -0.26562        0.00000
 BRILLOUIN|   105           0.00195       -0.39062       -0.23438        0.00000
 BRILLOUIN|   106           0.00195       -0.39062       -0.20312        0.00000
 BRILLOUIN|   107           0.00195       -0.39062       -0.17188        0.00000
 BRILLOUIN|   108           0.00195       -0.39062       -0.14062        0.00000
 BRILLOUIN|   109           0.00195       -0.39062       -0.10938        0.00000
 BRILLOUIN|   110           0.00195       -0.39062       -0.07812        0.00000
 BRILLOUIN|   111           0.00195       -0.39062       -0.04688        0.00000
 BRILLOUIN|   112           0.00195       -0.39062       -0.01562        0.00000
 BRILLOUIN|   113           0.00195       -0.39062        0.01562        0.00000
 BRILLOUIN|   114           0.00195       -0.39062        0.04688        0.00000
 BRILLOUIN|   115           0.00195       -0.39062        0.07812        0.00000
 BRILLOUIN|   116           0.00195       -0.39062        0.10938        0.00000
 BRILLOUIN|   117           0.00195       -0.39062        0.14062        0.00000
 BRILLOUIN|   118           0.00195       -0.39062        0.17188        0.00000
 BRILLOUIN|   119           0.00195       -0.39062        0.20312        0.00000
 BRILLOUIN|   120           0.00195       -0.39062        0.23438        0.00000
 BRILLOUIN|   121           0.00195       -0.39062        0.26562        0.00000
 BRILLOUIN|   122           0.00195       -0.39062        0.29688        0.00000
 BRILLOUIN|   123           0.00195       -0.39062        0.32812        0.00000
 BRILLOUIN|   124           0.00195       -0.39062        0.35938        0.00000
 BRILLOUIN|   125           0.00195       -0.39062        0.39062        0.00000
 BRILLOUIN|   126           0.00195       -0.39062        0.42188        0.00000
 BRILLOUIN|   127           0.00195       -0.39062        0.45312        0.00000
 BRILLOUIN|   128           0.00195       -0.39062        0.48438        0.00000
 BRILLOUIN|   129           0.00195       -0.35938       -0.48438        0.00000
 BRILLOUIN|   130           0.00195       -0.35938       -0.45312        0.00000
 BRILLOUIN|   131           0.00195       -0.35938       -0.42188        0.00000
 BRILLOUIN|   132           0.00195       -0.35938       -0.39062        0.00000
 BRILLOUIN|   133           0.00195       -0.35938       -0.35938        0.00000
 BRILLOUIN|   134           0.00195       -0.35938       -0.32812        0.00000
 BRILLOUIN|   135           0.00195       -0.35938       -0.29688        0.00000
 BRILLOUIN|   136           0.00195       -0.35938       -0.26562        0.00000
 BRILLOUIN|   137           0.00195       -0.35938       -0.23438        0.00000
 BRILLOUIN|   138           0.00195       -0.35938       -0.20312        0.00000
 BRILLOUIN|   139           0.00195       -0.35938       -0.17188        0.00000
 BRILLOUIN|   140           0.00195       -0.35938       -0.14062        0.00000
 BRILLOUIN|   141           0.00195       -0.35938       -0.10938        0.00000
 BRILLOUIN|   142           0.00195       -0.35938       -0.07812        0.00000
 BRILLOUIN|   143           0.00195       -0.35938       -0.04688        0.00000
 BRILLOUIN|   144           0.00195       -0.35938       -0.01562        0.00000
 BRILLOUIN|   145           0.00195       -0.35938        0.01562        0.00000
 BRILLOUIN|   146           0.00195       -0.35938        0.04688        0.00000
 BRILLOUIN|   147           0.00195       -0.35938        0.07812        0.00000
 BRILLOUIN|   148           0.00195       -0.35938        0.10938        0.00000
 BRILLOUIN|   149           0.00195       -0.35938        0.14062        0.00000
 BRILLOUIN|   150           0.00195       -0.35938        0.17188        0.00000
 BRILLOUIN|   151           0.00195       -0.35938        0.20312        0.00000
 BRILLOUIN|   152           0.00195       -0.35938        0.23438        0.00000
 BRILLOUIN|   153           0.00195       -0.35938        0.26562        0.00000
 BRILLOUIN|   154           0.00195       -0.35938        0.29688        0.00000
 BRILLOUIN|   155           0.00195       -0.35938        0.32812        0.00000
 BRILLOUIN|   156           0.00195       -0.35938        0.35938        0.00000
 BRILLOUIN|   157           0.00195       -0.35938        0.39062        0.00000
 BRILLOUIN|   158           0.00195       -0.35938        0.42188        0.00000
 BRILLOUIN|   159           0.00195       -0.35938        0.45312        0.00000
 BRILLOUIN|   160           0.00195       -0.35938        0.48438        0.00000
 BRILLOUIN|   161           0.00195       -0.32812       -0.48438        0.00000
 BRILLOUIN|   162           0.00195       -0.32812       -0.45312        0.00000
 BRILLOUIN|   163           0.00195       -0.32812       -0.42188        0.00000
 BRILLOUIN|   164           0.00195       -0.32812       -0.39062        0.00000
 BRILLOUIN|   165           0.00195       -0.32812       -0.35938        0.00000
 BRILLOUIN|   166           0.00195       -0.32812       -0.32812        0.00000
 BRILLOUIN|   167           0.00195       -0.32812       -0.29688        0.00000
 BRILLOUIN|   168           0.00195       -0.32812       -0.26562        0.00000
 BRILLOUIN|   169           0.00195       -0.32812       -0.23438        0.00000
 BRILLOUIN|   170           0.00195       -0.32812       -0.20312        0.00000
 BRILLOUIN|   171           0.00195       -0.32812       -0.17188        0.00000
 BRILLOUIN|   172           0.00195       -0.32812       -0.14062        0.00000
 BRILLOUIN|   173           0.00195       -0.32812       -0.10938        0.00000
 BRILLOUIN|   174           0.00195       -0.32812       -0.07812        0.00000
 BRILLOUIN|   175           0.00195       -0.32812       -0.04688        0.00000
 BRILLOUIN|   176           0.00195       -0.32812       -0.01562        0.00000
 BRILLOUIN|   177           0.00195       -0.32812        0.01562        0.00000
 BRILLOUIN|   178           0.00195       -0.32812        0.04688        0.00000
 BRILLOUIN|   179           0.00195       -0.32812        0.07812        0.00000
 BRILLOUIN|   180           0.00195       -0.32812        0.10938        0.00000
 BRILLOUIN|   181           0.00195       -0.32812        0.14062        0.00000
 BRILLOUIN|   182           0.00195       -0.32812        0.17188        0.00000
 BRILLOUIN|   183           0.00195       -0.32812        0.20312        0.00000
 BRILLOUIN|   184           0.00195       -0.32812        0.23438        0.00000
 BRILLOUIN|   185           0.00195       -0.32812        0.26562        0.00000
 BRILLOUIN|   186           0.00195       -0.32812        0.29688        0.00000
 BRILLOUIN|   187           0.00195       -0.32812        0.32812        0.00000
 BRILLOUIN|   188           0.00195       -0.32812        0.35938        0.00000
 BRILLOUIN|   189           0.00195       -0.32812        0.39062        0.00000
 BRILLOUIN|   190           0.00195       -0.32812        0.42188        0.00000
 BRILLOUIN|   191           0.00195       -0.32812        0.45312        0.00000
 BRILLOUIN|   192           0.00195       -0.32812        0.48438        0.00000
 BRILLOUIN|   193           0.00195       -0.29688       -0.48438        0.00000
 BRILLOUIN|   194           0.00195       -0.29688       -0.45312        0.00000
 BRILLOUIN|   195           0.00195       -0.29688       -0.42188        0.00000
 BRILLOUIN|   196           0.00195       -0.29688       -0.39062        0.00000
 BRILLOUIN|   197           0.00195       -0.29688       -0.35938        0.00000
 BRILLOUIN|   198           0.00195       -0.29688       -0.32812        0.00000
 BRILLOUIN|   199           0.00195       -0.29688       -0.29688        0.00000
 BRILLOUIN|   200           0.00195       -0.29688       -0.26562        0.00000
 BRILLOUIN|   201           0.00195       -0.29688       -0.23438        0.00000
 BRILLOUIN|   202           0.00195       -0.29688       -0.20312        0.00000
 BRILLOUIN|   203           0.00195       -0.29688       -0.17188        0.00000
 BRILLOUIN|   204           0.00195       -0.29688       -0.14062        0.00000
 BRILLOUIN|   205           0.00195       -0.29688       -0.10938        0.00000
 BRILLOUIN|   206           0.00195       -0.29688       -0.07812        0.00000
 BRILLOUIN|   207           0.00195       -0.29688       -0.04688        0.00000
 BRILLOUIN|   208           0.00195       -0.29688       -0.01562        0.00000
 BRILLOUIN|   209           0.00195       -0.29688        0.01562        0.00000
 BRILLOUIN|   210           0.00195       -0.29688        0.04688        0.00000
 BRILLOUIN|   211           0.00195       -0.29688        0.07812        0.00000
 BRILLOUIN|   212           0.00195       -0.29688        0.10938        0.00000
 BRILLOUIN|   213           0.00195       -0.29688        0.14062        0.00000
 BRILLOUIN|   214           0.00195       -0.29688        0.17188        0.00000
 BRILLOUIN|   215           0.00195       -0.29688        0.20312        0.00000
 BRILLOUIN|   216           0.00195       -0.29688        0.23438        0.00000
 BRILLOUIN|   217           0.00195       -0.29688        0.26562        0.00000
 BRILLOUIN|   218           0.00195       -0.29688        0.29688        0.00000
 BRILLOUIN|   219           0.00195       -0.29688        0.32812        0.00000
 BRILLOUIN|   220           0.00195       -0.29688        0.35938        0.00000
 BRILLOUIN|   221           0.00195       -0.29688        0.39062        0.00000
 BRILLOUIN|   222           0.00195       -0.29688        0.42188        0.00000
 BRILLOUIN|   223           0.00195       -0.29688        0.45312        0.00000
 BRILLOUIN|   224           0.00195       -0.29688        0.48438        0.00000
 BRILLOUIN|   225           0.00195       -0.26562       -0.48438        0.00000
 BRILLOUIN|   226           0.00195       -0.26562       -0.45312        0.00000
 BRILLOUIN|   227           0.00195       -0.26562       -0.42188        0.00000
 BRILLOUIN|   228           0.00195       -0.26562       -0.39062        0.00000
 BRILLOUIN|   229           0.00195       -0.26562       -0.35938        0.00000
 BRILLOUIN|   230           0.00195       -0.26562       -0.32812        0.00000
 BRILLOUIN|   231           0.00195       -0.26562       -0.29688        0.00000
 BRILLOUIN|   232           0.00195       -0.26562       -0.26562        0.00000
 BRILLOUIN|   233           0.00195       -0.26562       -0.23438        0.00000
 BRILLOUIN|   234           0.00195       -0.26562       -0.20312        0.00000
 BRILLOUIN|   235           0.00195       -0.26562       -0.17188        0.00000
 BRILLOUIN|   236           0.00195       -0.26562       -0.14062        0.00000
 BRILLOUIN|   237           0.00195       -0.26562       -0.10938        0.00000
 BRILLOUIN|   238           0.00195       -0.26562       -0.07812        0.00000
 BRILLOUIN|   239           0.00195       -0.26562       -0.04688        0.00000
 BRILLOUIN|   240           0.00195       -0.26562       -0.01562        0.00000
 BRILLOUIN|   241           0.00195       -0.26562        0.01562        0.00000
 BRILLOUIN|   242           0.00195       -0.26562        0.04688        0.00000
 BRILLOUIN|   243           0.00195       -0.26562        0.07812        0.00000
 BRILLOUIN|   244           0.00195       -0.26562        0.10938        0.00000
 BRILLOUIN|   245           0.00195       -0.26562        0.14062        0.00000
 BRILLOUIN|   246           0.00195       -0.26562        0.17188        0.00000
 BRILLOUIN|   247           0.00195       -0.26562        0.20312        0.00000
 BRILLOUIN|   248           0.00195       -0.26562        0.23438        0.00000
 BRILLOUIN|   249           0.00195       -0.26562        0.26562        0.00000
 BRILLOUIN|   250           0.00195       -0.26562        0.29688        0.00000
 BRILLOUIN|   251           0.00195       -0.26562        0.32812        0.00000
 BRILLOUIN|   252           0.00195       -0.26562        0.35938        0.00000
 BRILLOUIN|   253           0.00195       -0.26562        0.39062        0.00000
 BRILLOUIN|   254           0.00195       -0.26562        0.42188        0.00000
 BRILLOUIN|   255           0.00195       -0.26562        0.45312        0.00000
 BRILLOUIN|   256           0.00195       -0.26562        0.48438        0.00000
 BRILLOUIN|   257           0.00195       -0.23438       -0.48438        0.00000
 BRILLOUIN|   258           0.00195       -0.23438       -0.45312        0.00000
 BRILLOUIN|   259           0.00195       -0.23438       -0.42188        0.00000
 BRILLOUIN|   260           0.00195       -0.23438       -0.39062        0.00000
 BRILLOUIN|   261           0.00195       -0.23438       -0.35938        0.00000
 BRILLOUIN|   262           0.00195       -0.23438       -0.32812        0.00000
 BRILLOUIN|   263           0.00195       -0.23438       -0.29688        0.00000
 BRILLOUIN|   264           0.00195       -0.23438       -0.26562        0.00000
 BRILLOUIN|   265           0.00195       -0.23438       -0.23438        0.00000
 BRILLOUIN|   266           0.00195       -0.23438       -0.20312        0.00000
 BRILLOUIN|   267           0.00195       -0.23438       -0.17188        0.00000
 BRILLOUIN|   268           0.00195       -0.23438       -0.14062        0.00000
 BRILLOUIN|   269           0.00195       -0.23438       -0.10938        0.00000
 BRILLOUIN|   270           0.00195       -0.23438       -0.07812        0.00000
 BRILLOUIN|   271           0.00195       -0.23438       -0.04688        0.00000
 BRILLOUIN|   272           0.00195       -0.23438       -0.01562        0.00000
 BRILLOUIN|   273           0.00195       -0.23438        0.01562        0.00000
 BRILLOUIN|   274           0.00195       -0.23438        0.04688        0.00000
 BRILLOUIN|   275           0.00195       -0.23438        0.07812        0.00000
 BRILLOUIN|   276           0.00195       -0.23438        0.10938        0.00000
 BRILLOUIN|   277           0.00195       -0.23438        0.14062        0.00000
 BRILLOUIN|   278           0.00195       -0.23438        0.17188        0.00000
 BRILLOUIN|   279           0.00195       -0.23438        0.20312        0.00000
 BRILLOUIN|   280           0.00195       -0.23438        0.23438        0.00000
 BRILLOUIN|   281           0.00195       -0.23438        0.26562        0.00000
 BRILLOUIN|   282           0.00195       -0.23438        0.29688        0.00000
 BRILLOUIN|   283           0.00195       -0.23438        0.32812        0.00000
 BRILLOUIN|   284           0.00195       -0.23438        0.35938        0.00000
 BRILLOUIN|   285           0.00195       -0.23438        0.39062        0.00000
 BRILLOUIN|   286           0.00195       -0.23438        0.42188        0.00000
 BRILLOUIN|   287           0.00195       -0.23438        0.45312        0.00000
 BRILLOUIN|   288           0.00195       -0.23438        0.48438        0.00000
 BRILLOUIN|   289           0.00195       -0.20312       -0.48438        0.00000
 BRILLOUIN|   290           0.00195       -0.20312       -0.45312        0.00000
 BRILLOUIN|   291           0.00195       -0.20312       -0.42188        0.00000
 BRILLOUIN|   292           0.00195       -0.20312       -0.39062        0.00000
 BRILLOUIN|   293           0.00195       -0.20312       -0.35938        0.00000
 BRILLOUIN|   294           0.00195       -0.20312       -0.32812        0.00000
 BRILLOUIN|   295           0.00195       -0.20312       -0.29688        0.00000
 BRILLOUIN|   296           0.00195       -0.20312       -0.26562        0.00000
 BRILLOUIN|   297           0.00195       -0.20312       -0.23438        0.00000
 BRILLOUIN|   298           0.00195       -0.20312       -0.20312        0.00000
 BRILLOUIN|   299           0.00195       -0.20312       -0.17188        0.00000
 BRILLOUIN|   300           0.00195       -0.20312       -0.14062        0.00000
 BRILLOUIN|   301           0.00195       -0.20312       -0.10938        0.00000
 BRILLOUIN|   302           0.00195       -0.20312       -0.07812        0.00000
 BRILLOUIN|   303           0.00195       -0.20312       -0.04688        0.00000
 BRILLOUIN|   304           0.00195       -0.20312       -0.01562        0.00000
 BRILLOUIN|   305           0.00195       -0.20312        0.01562        0.00000
 BRILLOUIN|   306           0.00195       -0.20312        0.04688        0.00000
 BRILLOUIN|   307           0.00195       -0.20312        0.07812        0.00000
 BRILLOUIN|   308           0.00195       -0.20312        0.10938        0.00000
 BRILLOUIN|   309           0.00195       -0.20312        0.14062        0.00000
 BRILLOUIN|   310           0.00195       -0.20312        0.17188        0.00000
 BRILLOUIN|   311           0.00195       -0.20312        0.20312        0.00000
 BRILLOUIN|   312           0.00195       -0.20312        0.23438        0.00000
 BRILLOUIN|   313           0.00195       -0.20312        0.26562        0.00000
 BRILLOUIN|   314           0.00195       -0.20312        0.29688        0.00000
 BRILLOUIN|   315           0.00195       -0.20312        0.32812        0.00000
 BRILLOUIN|   316           0.00195       -0.20312        0.35938        0.00000
 BRILLOUIN|   317           0.00195       -0.20312        0.39062        0.00000
 BRILLOUIN|   318           0.00195       -0.20312        0.42188        0.00000
 BRILLOUIN|   319           0.00195       -0.20312        0.45312        0.00000
 BRILLOUIN|   320           0.00195       -0.20312        0.48438        0.00000
 BRILLOUIN|   321           0.00195       -0.17188       -0.48438        0.00000
 BRILLOUIN|   322           0.00195       -0.17188       -0.45312        0.00000
 BRILLOUIN|   323           0.00195       -0.17188       -0.42188        0.00000
 BRILLOUIN|   324           0.00195       -0.17188       -0.39062        0.00000
 BRILLOUIN|   325           0.00195       -0.17188       -0.35938        0.00000
 BRILLOUIN|   326           0.00195       -0.17188       -0.32812        0.00000
 BRILLOUIN|   327           0.00195       -0.17188       -0.29688        0.00000
 BRILLOUIN|   328           0.00195       -0.17188       -0.26562        0.00000
 BRILLOUIN|   329           0.00195       -0.17188       -0.23438        0.00000
 BRILLOUIN|   330           0.00195       -0.17188       -0.20312        0.00000
 BRILLOUIN|   331           0.00195       -0.17188       -0.17188        0.00000
 BRILLOUIN|   332           0.00195       -0.17188       -0.14062        0.00000
 BRILLOUIN|   333           0.00195       -0.17188       -0.10938        0.00000
 BRILLOUIN|   334           0.00195       -0.17188       -0.07812        0.00000
 BRILLOUIN|   335           0.00195       -0.17188       -0.04688        0.00000
 BRILLOUIN|   336           0.00195       -0.17188       -0.01562        0.00000
 BRILLOUIN|   337           0.00195       -0.17188        0.01562        0.00000
 BRILLOUIN|   338           0.00195       -0.17188        0.04688        0.00000
 BRILLOUIN|   339           0.00195       -0.17188        0.07812        0.00000
 BRILLOUIN|   340           0.00195       -0.17188        0.10938        0.00000
 BRILLOUIN|   341           0.00195       -0.17188        0.14062        0.00000
 BRILLOUIN|   342           0.00195       -0.17188        0.17188        0.00000
 BRILLOUIN|   343           0.00195       -0.17188        0.20312        0.00000
 BRILLOUIN|   344           0.00195       -0.17188        0.23438        0.00000
 BRILLOUIN|   345           0.00195       -0.17188        0.26562        0.00000
 BRILLOUIN|   346           0.00195       -0.17188        0.29688        0.00000
 BRILLOUIN|   347           0.00195       -0.17188        0.32812        0.00000
 BRILLOUIN|   348           0.00195       -0.17188        0.35938        0.00000
 BRILLOUIN|   349           0.00195       -0.17188        0.39062        0.00000
 BRILLOUIN|   350           0.00195       -0.17188        0.42188        0.00000
 BRILLOUIN|   351           0.00195       -0.17188        0.45312        0.00000
 BRILLOUIN|   352           0.00195       -0.17188        0.48438        0.00000
 BRILLOUIN|   353           0.00195       -0.14062       -0.48438        0.00000
 BRILLOUIN|   354           0.00195       -0.14062       -0.45312        0.00000
 BRILLOUIN|   355           0.00195       -0.14062       -0.42188        0.00000
 BRILLOUIN|   356           0.00195       -0.14062       -0.39062        0.00000
 BRILLOUIN|   357           0.00195       -0.14062       -0.35938        0.00000
 BRILLOUIN|   358           0.00195       -0.14062       -0.32812        0.00000
 BRILLOUIN|   359           0.00195       -0.14062       -0.29688        0.00000
 BRILLOUIN|   360           0.00195       -0.14062       -0.26562        0.00000
 BRILLOUIN|   361           0.00195       -0.14062       -0.23438        0.00000
 BRILLOUIN|   362           0.00195       -0.14062       -0.20312        0.00000
 BRILLOUIN|   363           0.00195       -0.14062       -0.17188        0.00000
 BRILLOUIN|   364           0.00195       -0.14062       -0.14062        0.00000
 BRILLOUIN|   365           0.00195       -0.14062       -0.10938        0.00000
 BRILLOUIN|   366           0.00195       -0.14062       -0.07812        0.00000
 BRILLOUIN|   367           0.00195       -0.14062       -0.04688        0.00000
 BRILLOUIN|   368           0.00195       -0.14062       -0.01562        0.00000
 BRILLOUIN|   369           0.00195       -0.14062        0.01562        0.00000
 BRILLOUIN|   370           0.00195       -0.14062        0.04688        0.00000
 BRILLOUIN|   371           0.00195       -0.14062        0.07812        0.00000
 BRILLOUIN|   372           0.00195       -0.14062        0.10938        0.00000
 BRILLOUIN|   373           0.00195       -0.14062        0.14062        0.00000
 BRILLOUIN|   374           0.00195       -0.14062        0.17188        0.00000
 BRILLOUIN|   375           0.00195       -0.14062        0.20312        0.00000
 BRILLOUIN|   376           0.00195       -0.14062        0.23438        0.00000
 BRILLOUIN|   377           0.00195       -0.14062        0.26562        0.00000
 BRILLOUIN|   378           0.00195       -0.14062        0.29688        0.00000
 BRILLOUIN|   379           0.00195       -0.14062        0.32812        0.00000
 BRILLOUIN|   380           0.00195       -0.14062        0.35938        0.00000
 BRILLOUIN|   381           0.00195       -0.14062        0.39062        0.00000
 BRILLOUIN|   382           0.00195       -0.14062        0.42188        0.00000
 BRILLOUIN|   383           0.00195       -0.14062        0.45312        0.00000
 BRILLOUIN|   384           0.00195       -0.14062        0.48438        0.00000
 BRILLOUIN|   385           0.00195       -0.10938       -0.48438        0.00000
 BRILLOUIN|   386           0.00195       -0.10938       -0.45312        0.00000
 BRILLOUIN|   387           0.00195       -0.10938       -0.42188        0.00000
 BRILLOUIN|   388           0.00195       -0.10938       -0.39062        0.00000
 BRILLOUIN|   389           0.00195       -0.10938       -0.35938        0.00000
 BRILLOUIN|   390           0.00195       -0.10938       -0.32812        0.00000
 BRILLOUIN|   391           0.00195       -0.10938       -0.29688        0.00000
 BRILLOUIN|   392           0.00195       -0.10938       -0.26562        0.00000
 BRILLOUIN|   393           0.00195       -0.10938       -0.23438        0.00000
 BRILLOUIN|   394           0.00195       -0.10938       -0.20312        0.00000
 BRILLOUIN|   395           0.00195       -0.10938       -0.17188        0.00000
 BRILLOUIN|   396           0.00195       -0.10938       -0.14062        0.00000
 BRILLOUIN|   397           0.00195       -0.10938       -0.10938        0.00000
 BRILLOUIN|   398           0.00195       -0.10938       -0.07812        0.00000
 BRILLOUIN|   399           0.00195       -0.10938       -0.04688        0.00000
 BRILLOUIN|   400           0.00195       -0.10938       -0.01562        0.00000
 BRILLOUIN|   401           0.00195       -0.10938        0.01562        0.00000
 BRILLOUIN|   402           0.00195       -0.10938        0.04688        0.00000
 BRILLOUIN|   403           0.00195       -0.10938        0.07812        0.00000
 BRILLOUIN|   404           0.00195       -0.10938        0.10938        0.00000
 BRILLOUIN|   405           0.00195       -0.10938        0.14062        0.00000
 BRILLOUIN|   406           0.00195       -0.10938        0.17188        0.00000
 BRILLOUIN|   407           0.00195       -0.10938        0.20312        0.00000
 BRILLOUIN|   408           0.00195       -0.10938        0.23438        0.00000
 BRILLOUIN|   409           0.00195       -0.10938        0.26562        0.00000
 BRILLOUIN|   410           0.00195       -0.10938        0.29688        0.00000
 BRILLOUIN|   411           0.00195       -0.10938        0.32812        0.00000
 BRILLOUIN|   412           0.00195       -0.10938        0.35938        0.00000
 BRILLOUIN|   413           0.00195       -0.10938        0.39062        0.00000
 BRILLOUIN|   414           0.00195       -0.10938        0.42188        0.00000
 BRILLOUIN|   415           0.00195       -0.10938        0.45312        0.00000
 BRILLOUIN|   416           0.00195       -0.10938        0.48438        0.00000
 BRILLOUIN|   417           0.00195       -0.07812       -0.48438        0.00000
 BRILLOUIN|   418           0.00195       -0.07812       -0.45312        0.00000
 BRILLOUIN|   419           0.00195       -0.07812       -0.42188        0.00000
 BRILLOUIN|   420           0.00195       -0.07812       -0.39062        0.00000
 BRILLOUIN|   421           0.00195       -0.07812       -0.35938        0.00000
 BRILLOUIN|   422           0.00195       -0.07812       -0.32812        0.00000
 BRILLOUIN|   423           0.00195       -0.07812       -0.29688        0.00000
 BRILLOUIN|   424           0.00195       -0.07812       -0.26562        0.00000
 BRILLOUIN|   425           0.00195       -0.07812       -0.23438        0.00000
 BRILLOUIN|   426           0.00195       -0.07812       -0.20312        0.00000
 BRILLOUIN|   427           0.00195       -0.07812       -0.17188        0.00000
 BRILLOUIN|   428           0.00195       -0.07812       -0.14062        0.00000
 BRILLOUIN|   429           0.00195       -0.07812       -0.10938        0.00000
 BRILLOUIN|   430           0.00195       -0.07812       -0.07812        0.00000
 BRILLOUIN|   431           0.00195       -0.07812       -0.04688        0.00000
 BRILLOUIN|   432           0.00195       -0.07812       -0.01562        0.00000
 BRILLOUIN|   433           0.00195       -0.07812        0.01562        0.00000
 BRILLOUIN|   434           0.00195       -0.07812        0.04688        0.00000
 BRILLOUIN|   435           0.00195       -0.07812        0.07812        0.00000
 BRILLOUIN|   436           0.00195       -0.07812        0.10938        0.00000
 BRILLOUIN|   437           0.00195       -0.07812        0.14062        0.00000
 BRILLOUIN|   438           0.00195       -0.07812        0.17188        0.00000
 BRILLOUIN|   439           0.00195       -0.07812        0.20312        0.00000
 BRILLOUIN|   440           0.00195       -0.07812        0.23438        0.00000
 BRILLOUIN|   441           0.00195       -0.07812        0.26562        0.00000
 BRILLOUIN|   442           0.00195       -0.07812        0.29688        0.00000
 BRILLOUIN|   443           0.00195       -0.07812        0.32812        0.00000
 BRILLOUIN|   444           0.00195       -0.07812        0.35938        0.00000
 BRILLOUIN|   445           0.00195       -0.07812        0.39062        0.00000
 BRILLOUIN|   446           0.00195       -0.07812        0.42188        0.00000
 BRILLOUIN|   447           0.00195       -0.07812        0.45312        0.00000
 BRILLOUIN|   448           0.00195       -0.07812        0.48438        0.00000
 BRILLOUIN|   449           0.00195       -0.04688       -0.48438        0.00000
 BRILLOUIN|   450           0.00195       -0.04688       -0.45312        0.00000
 BRILLOUIN|   451           0.00195       -0.04688       -0.42188        0.00000
 BRILLOUIN|   452           0.00195       -0.04688       -0.39062        0.00000
 BRILLOUIN|   453           0.00195       -0.04688       -0.35938        0.00000
 BRILLOUIN|   454           0.00195       -0.04688       -0.32812        0.00000
 BRILLOUIN|   455           0.00195       -0.04688       -0.29688        0.00000
 BRILLOUIN|   456           0.00195       -0.04688       -0.26562        0.00000
 BRILLOUIN|   457           0.00195       -0.04688       -0.23438        0.00000
 BRILLOUIN|   458           0.00195       -0.04688       -0.20312        0.00000
 BRILLOUIN|   459           0.00195       -0.04688       -0.17188        0.00000
 BRILLOUIN|   460           0.00195       -0.04688       -0.14062        0.00000
 BRILLOUIN|   461           0.00195       -0.04688       -0.10938        0.00000
 BRILLOUIN|   462           0.00195       -0.04688       -0.07812        0.00000
 BRILLOUIN|   463           0.00195       -0.04688       -0.04688        0.00000
 BRILLOUIN|   464           0.00195       -0.04688       -0.01562        0.00000
 BRILLOUIN|   465           0.00195       -0.04688        0.01562        0.00000
 BRILLOUIN|   466           0.00195       -0.04688        0.04688        0.00000
 BRILLOUIN|   467           0.00195       -0.04688        0.07812        0.00000
 BRILLOUIN|   468           0.00195       -0.04688        0.10938        0.00000
 BRILLOUIN|   469           0.00195       -0.04688        0.14062        0.00000
 BRILLOUIN|   470           0.00195       -0.04688        0.17188        0.00000
 BRILLOUIN|   471           0.00195       -0.04688        0.20312        0.00000
 BRILLOUIN|   472           0.00195       -0.04688        0.23438        0.00000
 BRILLOUIN|   473           0.00195       -0.04688        0.26562        0.00000
 BRILLOUIN|   474           0.00195       -0.04688        0.29688        0.00000
 BRILLOUIN|   475           0.00195       -0.04688        0.32812        0.00000
 BRILLOUIN|   476           0.00195       -0.04688        0.35938        0.00000
 BRILLOUIN|   477           0.00195       -0.04688        0.39062        0.00000
 BRILLOUIN|   478           0.00195       -0.04688        0.42188        0.00000
 BRILLOUIN|   479           0.00195       -0.04688        0.45312        0.00000
 BRILLOUIN|   480           0.00195       -0.04688        0.48438        0.00000
 BRILLOUIN|   481           0.00195       -0.01562       -0.48438        0.00000
 BRILLOUIN|   482           0.00195       -0.01562       -0.45312        0.00000
 BRILLOUIN|   483           0.00195       -0.01562       -0.42188        0.00000
 BRILLOUIN|   484           0.00195       -0.01562       -0.39062        0.00000
 BRILLOUIN|   485           0.00195       -0.01562       -0.35938        0.00000
 BRILLOUIN|   486           0.00195       -0.01562       -0.32812        0.00000
 BRILLOUIN|   487           0.00195       -0.01562       -0.29688        0.00000
 BRILLOUIN|   488           0.00195       -0.01562       -0.26562        0.00000
 BRILLOUIN|   489           0.00195       -0.01562       -0.23438        0.00000
 BRILLOUIN|   490           0.00195       -0.01562       -0.20312        0.00000
 BRILLOUIN|   491           0.00195       -0.01562       -0.17188        0.00000
 BRILLOUIN|   492           0.00195       -0.01562       -0.14062        0.00000
 BRILLOUIN|   493           0.00195       -0.01562       -0.10938        0.00000
 BRILLOUIN|   494           0.00195       -0.01562       -0.07812        0.00000
 BRILLOUIN|   495           0.00195       -0.01562       -0.04688        0.00000
 BRILLOUIN|   496           0.00195       -0.01562       -0.01562        0.00000
 BRILLOUIN|   497           0.00195       -0.01562        0.01562        0.00000
 BRILLOUIN|   498           0.00195       -0.01562        0.04688        0.00000
 BRILLOUIN|   499           0.00195       -0.01562        0.07812        0.00000
 BRILLOUIN|   500           0.00195       -0.01562        0.10938        0.00000
 BRILLOUIN|   501           0.00195       -0.01562        0.14062        0.00000
 BRILLOUIN|   502           0.00195       -0.01562        0.17188        0.00000
 BRILLOUIN|   503           0.00195       -0.01562        0.20312        0.00000
 BRILLOUIN|   504           0.00195       -0.01562        0.23438        0.00000
 BRILLOUIN|   505           0.00195       -0.01562        0.26562        0.00000
 BRILLOUIN|   506           0.00195       -0.01562        0.29688        0.00000
 BRILLOUIN|   507           0.00195       -0.01562        0.32812        0.00000
 BRILLOUIN|   508           0.00195       -0.01562        0.35938        0.00000
 BRILLOUIN|   509           0.00195       -0.01562        0.39062        0.00000
 BRILLOUIN|   510           0.00195       -0.01562        0.42188        0.00000
 BRILLOUIN|   511           0.00195       -0.01562        0.45312        0.00000
 BRILLOUIN|   512           0.00195       -0.01562        0.48438        0.00000
 *******************************************************************************

 *******************************************************************************
 *******************************************************************************
 **                                                                           **
 **     #####                         ##              ##                      **
 **    ##   ##            ##          ##              ##                      **
 **   ##     ##                       ##            ######                    **
 **   ##     ##  ##   ##  ##   #####  ##  ##   ####   ##    #####    #####    **
 **   ##     ##  ##   ##  ##  ##      ## ##   ##      ##   ##   ##  ##   ##   **
 **   ##  ## ##  ##   ##  ##  ##      ####     ###    ##   ######   ######    **
 **    ##  ###   ##   ##  ##  ##      ## ##      ##   ##   ##       ##        **
 **     #######   #####   ##   #####  ##  ##  ####    ##    #####   ##        **
 **           ##                                                    ##        **
 **                                                                           **
 **                                                ... make the atoms dance   **
 **                                                                           **
 **            Copyright (C) by CP2K developers group (2000-2024)             **
 **                      J. Chem. Phys. 152, 194103 (2020)                    **
 **                                                                           **
 *******************************************************************************

 DFT| Spin restricted Kohn-Sham (RKS) calculation                            RKS
 DFT| Multiplicity                                                             1
 DFT| Number of spin states                                                    1
 DFT| Charge                                                                   0
 DFT| Self-interaction correction (SIC)                                       NO
 DFT| Cutoffs: density                                              1.000000E-10
 DFT|          gradient                                             1.000000E-10
 DFT|          tau                                                  1.000000E-10
 DFT|          cutoff_smoothing_range                               0.000000E+00
 DFT| XC density smoothing                                                  NONE
 DFT| XC derivatives                                                          PW

 FUNCTIONAL| PBE:
 FUNCTIONAL| J.P.Perdew, K.Burke, M.Ernzerhof, Phys. Rev. Letter, vol. 77, n 18,
 FUNCTIONAL|  pp. 3865-3868, (1996) {spin unpolarized}                          


 QS| Method:                                                                GAPW
 QS| Density plane wave grid type                        NON-SPHERICAL FULLSPACE
 QS| Number of grid levels:                                                    4
 QS| Density cutoff [a.u.]:                                                250.0
 QS| Multi grid cutoff [a.u.]: 1) grid level                               250.0
 QS|                           2) grid level                                83.3
 QS|                           3) grid level                                27.8
 QS|                           4) grid level                                 9.3
 QS| Grid level progression factor:                                          3.0
 QS| Relative density cutoff [a.u.]:                                        50.0
 QS| Interaction thresholds: eps_pgf_orb:                                1.0E-12
 QS|                         eps_filter_matrix:                          0.0E+00
 QS|                         eps_core_charge:                            1.0E-14
 QS|                         eps_rho_gspace:                             1.0E-12
 QS|                         eps_rho_rspace:                             1.0E-12
 QS|                         eps_gvg_rspace:                             1.0E-06
 QS|                         eps_ppl:                                    1.0E-02
 QS|                         eps_ppnl:                                   1.0E-08
 QS| GAPW|      One center basis from orbital basis primitives
 QS| GAPW|                   eps_fit:                                    1.0E-04
 QS| GAPW|                   eps_iso:                                    1.0E-12
 QS| GAPW|                   eps_svd:                                    1.0E-08
 QS| GAPW|                   eps_cpc:                                    1.0E-12
 QS| GAPW|   atom-r-grid: quadrature:                                     GC_LOG
 QS| GAPW|      atom-s-grid:  max l :                                          4
 QS| GAPW|      max_l_rho0 :                                                   2
 QS| GAPW|      At least one kind is NOT PAW, i.e. it has only soft AO 
 QS| GAPW|      The NOT PAW atoms are treated fully GPW


 ATOMIC KIND INFORMATION

  1. Atomic kind: Mo                                    Number of atoms:       1

     Orbital Basis Set                                         SZV-MOLOPT-SR-GTH

       Number of orbital shell sets:                                           1
       Number of orbital shells:                                               4
       Number of primitive Cartesian functions:                                7
       Number of Cartesian basis functions:                                   11
       Number of spherical basis functions:                                   10
       Norm type:                                                              2

       Normalised Cartesian orbitals:

                        Set   Shell   Orbital            Exponent    Coefficient

                          1       1    2s                2.540273      -1.291313
                                                         1.999996       0.475974
                                                         0.894040       0.689563
                                                         0.439257       0.078864
                                                         0.189498       0.027372
                                                         0.083802      -0.010762
                                                         0.052949       0.001981

                          1       2    3s                2.540273       0.199824
                                                         1.999996      -0.186721
                                                         0.894040       0.125661
                                                         0.439257       0.016258
                                                         0.189498      -0.028997
                                                         0.083802      -0.064725
                                                         0.052949      -0.030340

                          1       3    3px               2.540273       2.808959
                                                         1.999996      -2.548088
                                                         0.894040      -0.605502
                                                         0.439257      -0.180857
                                                         0.189498      -0.006020
                                                         0.083802      -0.000118
                                                         0.052949       0.000064
                          1       3    3py               2.540273       2.808959
                                                         1.999996      -2.548088
                                                         0.894040      -0.605502
                                                         0.439257      -0.180857
                                                         0.189498      -0.006020
                                                         0.083802      -0.000118
                                                         0.052949       0.000064
                          1       3    3pz               2.540273       2.808959
                                                         1.999996      -2.548088
                                                         0.894040      -0.605502
                                                         0.439257      -0.180857
                                                         0.189498      -0.006020
                                                         0.083802      -0.000118
                                                         0.052949       0.000064

                          1       4    4dx2              2.540273      -1.655644
                                                         1.999996       2.115795
                                                         0.894040       0.370223
                                                         0.439257       0.160904
                                                         0.189498       0.023725
                                                         0.083802       0.001356
                                                         0.052949       0.000173
                          1       4    4dxy              2.540273      -2.867659
                                                         1.999996       3.664665
                                                         0.894040       0.641246
                                                         0.439257       0.278693
                                                         0.189498       0.041094
                                                         0.083802       0.002348
                                                         0.052949       0.000300
                          1       4    4dxz              2.540273      -2.867659
                                                         1.999996       3.664665
                                                         0.894040       0.641246
                                                         0.439257       0.278693
                                                         0.189498       0.041094
                                                         0.083802       0.002348
                                                         0.052949       0.000300
                          1       4    4dy2              2.540273      -1.655644
                                                         1.999996       2.115795
                                                         0.894040       0.370223
                                                         0.439257       0.160904
                                                         0.189498       0.023725
                                                         0.083802       0.001356
                                                         0.052949       0.000173
                          1       4    4dyz              2.540273      -2.867659
                                                         1.999996       3.664665
                                                         0.894040       0.641246
                                                         0.439257       0.278693
                                                         0.189498       0.041094
                                                         0.083802       0.002348
                                                         0.052949       0.000300
                          1       4    4dz2              2.540273      -1.655644
                                                         1.999996       2.115795
                                                         0.894040       0.370223
                                                         0.439257       0.160904
                                                         0.189498       0.023725
                                                         0.083802       0.001356
                                                         0.052949       0.000173

     RI Auxiliary Basis Set                          RI_25_2_2_2_1_0_0_0_2.4e-02

       Number of orbital shell sets:                                           7
       Number of orbital shells:                                               7
       Number of primitive Cartesian functions:                                7
       Number of Cartesian basis functions:                                   30
       Number of spherical basis functions:                                   25
       Norm type:                                                              2

       Normalised Cartesian orbitals:

                        Set   Shell   Orbital            Exponent    Coefficient

                          1       1    1s                0.277471       0.272473

                          2       1    3px               0.351689       0.386046
                          2       1    3py               0.351689       0.386046
                          2       1    3pz               0.351689       0.386046

                          3       1    5dx2              0.603840       0.680806
                          3       1    5dxy              0.603840       1.179190
                          3       1    5dxz              0.603840       1.179190
                          3       1    5dy2              0.603840       0.680806
                          3       1    5dyz              0.603840       1.179190
                          3       1    5dz2              0.603840       0.680806

                          4       1    2s                1.015338       0.720888

                          5       1    4px               1.057022       1.527724
                          5       1    4py               1.057022       1.527724
                          5       1    4pz               1.057022       1.527724

                          6       1    7fx3              1.614338       4.324562
                          6       1    7fx2y             1.614338       9.670016
                          6       1    7fx2z             1.614338       9.670016
                          6       1    7fxy2             1.614338       9.670016
                          6       1    7fxyz             1.614338      16.748958
                          6       1    7fxz2             1.614338       9.670016
                          6       1    7fy3              1.614338       4.324562
                          6       1    7fy2z             1.614338       9.670016
                          6       1    7fyz2             1.614338       9.670016
                          6       1    7fz3              1.614338       4.324562

                          7       1    6dx2              1.927446       5.189533
                          7       1    6dxy              1.927446       8.988535
                          7       1    6dxz              1.927446       8.988535
                          7       1    6dy2              1.927446       5.189533
                          7       1    6dyz              1.927446       8.988535
                          7       1    6dz2              1.927446       5.189533

       Atomic covalent radius [Angstrom]:                                  1.300

       Atomic van der Waals radius [Angstrom]:                             1.670

     GTH Potential information for                                   GTH-PBE-q14

       Description:                       Goedecker-Teter-Hutter pseudopotential
                                           Goedecker et al., PRB 54, 1703 (1996)
                                          Hartwigsen et al., PRB 58, 3641 (1998)
                                                      Krack, TCA 114, 145 (2005)

       Gaussian exponent of the core charge distribution:               2.704164
       Electronic configuration (s p d ...):                           3   6   5

       Parameters of the local part of the GTH pseudopotential:

                          rloc        C1          C2          C3          C4
                        0.430000   28.609368   -4.721803

       Parameters of the non-local part of the GTH (SOC) pseudopotential:

                   l      r(l)      h(i,j,l)
                                    k(i,j,l)
                   0    0.345216    0.146303    2.762005
                                    2.762005   -3.565733
                   1    0.416888   -0.190785   -0.728744
                                   -0.728744    0.862262
                                    0.101036    0.157628
                                    0.157628   -0.186508
                   2    0.420508    1.216814   -2.686463
                                   -2.686463    3.046162
                                    0.001360    0.022739
                                    0.022739   -0.025783

  2. Atomic kind: S                                     Number of atoms:       2

     Orbital Basis Set                                            SZV-MOLOPT-GTH

       Number of orbital shell sets:                                           1
       Number of orbital shells:                                               2
       Number of primitive Cartesian functions:                                6
       Number of Cartesian basis functions:                                    4
       Number of spherical basis functions:                                    4
       Norm type:                                                              2

       Normalised Cartesian orbitals:

                        Set   Shell   Orbital            Exponent    Coefficient

                          1       1    2s                3.817591       0.157264
                                                         2.362752      -0.510082
                                                         0.861004      -0.067545
                                                         0.417525       0.341507
                                                         0.181514       0.065073
                                                         0.070571       0.000166

                          1       2    3px               3.817591      -0.172386
                                                         2.362752      -0.175607
                                                         0.861004       0.224215
                                                         0.417525       0.286358
                                                         0.181514       0.049699
                                                         0.070571       0.001588
                          1       2    3py               3.817591      -0.172386
                                                         2.362752      -0.175607
                                                         0.861004       0.224215
                                                         0.417525       0.286358
                                                         0.181514       0.049699
                                                         0.070571       0.001588
                          1       2    3pz               3.817591      -0.172386
                                                         2.362752      -0.175607
                                                         0.861004       0.224215
                                                         0.417525       0.286358
                                                         0.181514       0.049699
                                                         0.070571       0.001588

     RI Auxiliary Basis Set                          RI_20_2_2_1_1_0_0_0_1.3e-02

       Number of orbital shell sets:                                           6
       Number of orbital shells:                                               6
       Number of primitive Cartesian functions:                                6
       Number of Cartesian basis functions:                                   24
       Number of spherical basis functions:                                   20
       Norm type:                                                              2

       Normalised Cartesian orbitals:

                        Set   Shell   Orbital            Exponent    Coefficient

                          1       1    3px               0.306177       0.324643
                          1       1    3py               0.306177       0.324643
                          1       1    3pz               0.306177       0.324643

                          2       1    1s                0.313937       0.298911

                          3       1    2s                0.392677       0.353538

                          4       1    4px               0.648905       0.830170
                          4       1    4py               0.648905       0.830170
                          4       1    4pz               0.648905       0.830170

                          5       1    5dx2              0.905855       1.384401
                          5       1    5dxy              0.905855       2.397854
                          5       1    5dxz              0.905855       2.397854
                          5       1    5dy2              0.905855       1.384401
                          5       1    5dyz              0.905855       2.397854
                          5       1    5dz2              0.905855       1.384401

                          6       1    6fx3              0.911525       1.195180
                          6       1    6fx2y             0.911525       2.672503
                          6       1    6fx2z             0.911525       2.672503
                          6       1    6fxy2             0.911525       2.672503
                          6       1    6fxyz             0.911525       4.628912
                          6       1    6fxz2             0.911525       2.672503
                          6       1    6fy3              0.911525       1.195180
                          6       1    6fy2z             0.911525       2.672503
                          6       1    6fyz2             0.911525       2.672503
                          6       1    6fz3              0.911525       1.195180

       Atomic covalent radius [Angstrom]:                                  1.020

       Atomic van der Waals radius [Angstrom]:                             1.800

     GTH Potential information for                                    GTH-PBE-q6

       Description:                       Goedecker-Teter-Hutter pseudopotential
                                           Goedecker et al., PRB 54, 1703 (1996)
                                          Hartwigsen et al., PRB 58, 3641 (1998)
                                                      Krack, TCA 114, 145 (2005)

       Gaussian exponent of the core charge distribution:               2.834467
       Electronic configuration (s p d ...):                               2   4

       Parameters of the local part of the GTH pseudopotential:

                          rloc        C1          C2          C3          C4
                        0.420000   -5.986260

       Parameters of the non-local part of the GTH (SOC) pseudopotential:

                   l      r(l)      h(i,j,l)
                                    k(i,j,l)
                   0    0.364820   13.143544   -4.241830
                                   -4.241830    5.476180
                   1    0.409480    3.700891    0.000000
                                    0.000000    0.000000
                                    0.034924   -0.026608
                                   -0.026608    0.031483


 MOLECULE KIND INFORMATION


 All atoms are their own molecule, skipping detailed information


 TOTAL NUMBERS AND MAXIMUM NUMBERS

  Total number of            - Atomic kinds:                                   2
                             - Atoms:                                          3
                             - Shell sets:                                     3
                             - Shells:                                         8
                             - Primitive Cartesian functions:                 19
                             - Cartesian basis functions:                     19
                             - Spherical basis functions:                     18

  Maximum angular momentum of- Orbital basis functions:                        2
                             - Local part of the GTH pseudopotential:          2
                             - Non-local part of the GTH pseudopotential:      4


 MODULE QUICKSTEP: ATOMIC COORDINATES IN ANGSTROM

   Atom Kind Element         X             Y             Z       Z(eff)     Mass
      1    1 Mo   42      0.000000      0.000000      9.063556  14.0000  95.9600
      2    2 S    16      1.592033      0.919161     10.627113   6.0000  32.0650
      3    2 S    16      1.592033      0.919161      7.500000   6.0000  32.0650



 SCF PARAMETERS         Density guess:                                    ATOMIC
                        --------------------------------------------------------
                        max_scf:                                             500
                        max_scf_history:                                       0
                        max_diis:                                              4
                        --------------------------------------------------------
                        eps_scf:                                        1.00E-09
                        eps_scf_history:                                0.00E+00
                        eps_diis:                                       1.00E-01
                        eps_eigval:                                     1.00E-05
                        --------------------------------------------------------
                        level_shift [a.u.]:                             0.000000
                        added MOs                                         5    0
                        --------------------------------------------------------
                        Mixing method:                            BROYDEN_MIXING
                                                charge density mixing in g-space
                        --------------------------------------------------------
                        No outer SCF

 PW_GRID| Information for grid number                                          1
 PW_GRID| Grid distributed over                                   192 processors
 PW_GRID| Real space group dimensions                                    12   16
 PW_GRID| the grid is blocked:                                               YES
 PW_GRID| Cutoff [a.u.]                                                    250.0
 PW_GRID| spherical cutoff:                                                   NO
 PW_GRID|   Bounds   1            -22      22                Points:          45
 PW_GRID|   Bounds   2            -22      22                Points:          45
 PW_GRID|   Bounds   3           -108     107                Points:         216
 PW_GRID| Volume element (a.u.^3)  0.2032E-02     Volume (a.u.^3)       888.7193
 PW_GRID| Grid span                                                    FULLSPACE
[...]
                                MAXIMUM       AVERAGE  MAXIMUM  AVERAGE  MAXIMUM
 CP2K                                 1  1.0     0.01     0.02 11436.79 11436.79
 qs_energies                          1  2.0     0.00     0.00 11435.85 11435.88
 qs_energies_properties               1  3.0     0.00     0.00 10628.53 10628.57
 post_scf_bandstructure               1  4.0     0.00     0.00 10628.53 10628.57
 gw                                   1  5.0     0.00     0.00 10539.00 10539.00
 gw_calc_small_cell_full_kp           1  6.0     0.00     0.00 10490.03 10490.03
 dbt_total                      *******  9.9    63.96    71.20  6118.23  6613.29
 dbt_contract                   ******* 10.6    88.54    98.54  5214.79  5587.84
 dbt_tas_multiply               4800206 12.9     8.36     8.93  4776.76  5121.98
 dbt_tas_total                  4800206 13.9   431.76   478.91  4763.73  5106.79
 compute_Sigma_c                      1  7.0     0.01     0.01  4767.94  4767.97
 compute_chi                          1  7.0     0.10     0.12  3433.07  3433.11
 contract_to_Sigma                  549  8.0   102.93   125.69  2734.82  3032.20
 dbt_tas_estimate_result_nze    2400103 13.4   129.40   140.94  2321.18  2499.49
 compute_W_real_space                 1  7.0     1.94     2.00  2034.94  2035.01
 contract_to_Sigma_3c_x_G       5241913  9.0    12.55    13.85  1773.03  2011.28
 compute_Minv_and_Vsqrt               1  8.0     0.02     0.02  1774.99  1775.07
 build_2c_coulomb_matrix_kp_sma       2  9.0     4.44     5.03  1770.14  1770.21
 G_times_3c                       27360  8.0    20.24    21.12  1481.53  1649.14
 mp_sync                        ******* 11.6  1116.18  1545.40  1116.18  1545.40
 contract_M_occ_vir_to_chi          270  8.0   173.04   221.68  1269.72  1428.52
 contract_W                         279  8.0    16.92    17.77  1246.89  1381.71
 reshape_mm_small               4800206 14.9   454.30   486.52  1245.36  1331.75
 build_2c_coulomb_matrix_kp_sma  655360 10.0   949.06  1032.64   949.06  1032.64
 dbt_copy                       ******* 11.1    64.56    73.71   791.19   946.37
 contract_to_Sigma_contract       27816  9.0    24.48    26.76   840.61   922.02
 dbt_tas_create_split           ******* 16.0    16.42    17.59   831.00   913.39
 dbt_tas_create_split_rows_or_c ******* 17.0    64.09    68.20   814.58   896.99
 dbt_tas_dbm                    4800206 14.9     7.72     8.46   808.39   881.07
 dbcsr_complete_redistribute     510880  9.6    18.89    25.55   825.46   862.81
 dbm_multiply                   4800206 16.9   745.68   854.34   745.68   854.34
 copy_dbcsr_to_fm                287809  8.0     3.39     3.75   844.74   850.37
 scf_env_do_scf                       1  3.0     0.00     0.00   807.07   807.07
 scf_env_do_scf_inner_loop           75  4.0     0.01     0.02   807.07   807.07
 qs_scf_new_mos_kp                   75  5.0     0.00     0.00   787.03   787.14
 do_general_diag_kp                  75  6.0     0.84     0.92   787.03   787.14
 get_t_3c_int                   8192263  9.6    66.61    82.46   604.42   763.53
 dbt_tas_distribution_new       ******* 15.7   304.01   332.31   643.16   709.95
 reshape_mm_compatible          4800206 14.9    88.69    94.01   630.75   681.23
 dbt_reshape                    8575837 12.0   325.30   422.61   498.13   634.52
 mp_sum_dm                       655434 10.0   623.28   625.94   623.28   625.94
 dbcsr_desymmetrize_deep         454297  8.3     8.99    10.16   555.62   560.75
 mp_alltoall_d11v               2895531 10.4   539.90   542.71   539.90   542.71
 G_occ_vir                          121  8.0     0.48     0.57   511.74   514.59
 mp_alltoall_i11v               1986937 10.3   512.71   512.95   512.71   512.95
 change_split                   6597249 15.4    29.54    31.48   446.75   490.35
 dbt_tas_replicate              4800206 14.9   155.24   176.80   430.73   480.75
 mp_cart_create                 ******* 16.7   341.40   415.94   365.01   440.01
 dbt_tas_reshape                5403266 15.5    59.14    68.06   364.61   412.93
 fm_to_local_tensor              146072  9.0     4.27     4.83   405.64   405.69
 copy_fm_to_dbcsr                223071  9.3     1.03     1.13   360.93   397.13
 dbt_tas_mm_2                   1504338 16.0     2.79     3.30   312.43   355.20
 dbt_tas_mm_3T                  2027098 16.2     2.24     2.60   273.18   323.59
 local_dbt_to_global_fm              91  8.0     0.33     0.36   300.77   300.77
 mp_comm_dup                    ******* 18.5   235.90   280.17   248.76   292.77
 mp_comm_split_direct           ******* 18.0   253.51   283.04   262.42   291.97
 convert_to_new_pgrid           ******* 14.9   115.25   126.71   238.22   258.32
 hybrid_alltoall_any             454297  9.3     2.26     2.50   254.03   255.11
 mp_alltoall_i                  ******* 14.7   104.61   227.87   104.61   227.87
 dbt_tas_reserve_blocks_index   ******* 15.6    42.56    46.05   169.25   218.33
 dbm_reserve_blocks             ******* 16.5   154.86   212.55   154.86   212.55
 dbt_tas_create_new             ******* 15.3   193.63   210.56   193.63   210.56
 dbt_tas_mm_1N                  1302864 15.5     1.40     1.57   178.65   210.29
 mp_alltoall_i22                 965177 10.0   142.37   182.57   142.37   182.57
 dbt_remap                       319033 11.0    47.81    53.57   161.74   173.46
 dbt_tas_communicate_buffer     ******* 17.2    52.39    58.13   146.64   161.90
 dbt_permute_index              ******* 12.2   124.97   137.74   141.93   157.91
 dbt_tas_copy                   5348547 12.6    60.66    83.78   110.37   157.42
 compute_Sigma_x                      1  7.0     0.00     0.00   144.28   144.31
 cp_cfm_gemm                     271042 10.9   132.96   141.91   132.96   141.91
 dbt_tas_reserve_blocks_templat 9848264 14.0    42.38    50.99   107.38   141.52
 parallel_gemm_cfm               267820  8.9     0.25     0.26   132.33   141.31
 parallel_gemm_cfm_gemm          267820  9.9     0.25     0.29   132.09   141.06
 fm_add_ikp_to_rs                123904  9.0    77.02    79.49   111.61   139.34
 dbm_copy                       9600412 15.9   122.97   137.71   122.97   137.71
 add_R                          *******  9.3    92.03    97.92   123.51   130.92
 kpoint_density_transform            75  7.0     0.25     0.27   124.29   124.31
 global_matrix_to_local_matrix   146072 10.0     3.37     4.79    82.02   122.61
 add_V_L                         327680 10.0     2.50   121.77     2.50   121.77
 mp_sum_l                       ******* 15.1    72.57   119.94    72.57   119.94
 dbt_tas_reshape_buffer_obtain  5403266 16.5    53.20    62.13    97.74   119.00
 dbt_create_matrix               146072 10.0     1.86     2.00    37.19   116.37
 dbt_reserve_blocks_index_array ******* 13.0    10.95    13.05    86.85   112.86
 compute_QP_energies                  1  7.0     0.06     0.07   109.80   109.85
 trafo_to_k_and_nn                65514  8.0     0.37     0.44   109.63   109.68
 mp_comm_free                   ******* 15.6    97.45   107.09    97.45   107.09
 dbt_reserve_blocks_index       ******* 13.9    14.61    17.30    78.03   103.57
 dbt_pgrid_create_expert         930223 13.2     2.16     2.44    25.01   102.68
 get_V_tr_R                          34  9.0     0.14     0.15    99.58    99.64
 add_ikp_to_rs                  ******* 10.0    68.87    97.24    68.87    97.24
 dbt_nd_mp_comm                  465105 11.7     1.43     1.60    16.63    94.96
 dbt_align_index                7200309 11.4    14.78    16.08    89.04    94.95
 dbt_tas_merge                  1504338 15.0    51.47    63.22    78.58    94.12
 mult_W_with_Minv                    30  8.0     0.21     0.23    93.50    93.60
 dbt_tas_reshape_communicate_bu 5403266 16.5     7.27     7.97    81.34    92.11
 fm_MWM_R_t_to_local_tensor_W_R      30  8.0     0.04     0.05    85.50    85.50
 dbt_tas_mp_comm                2701633 13.2     9.98    10.68    77.87    84.09
 send_data                       146072 11.0     0.19     0.24    45.34    83.33
 communicate_buffer              146072 12.0     2.08    30.20    45.15    83.14
 mp_waitall_1                   1585093 11.0    49.47    82.81    49.47    82.81
 dbt_tas_replicate_alltoall     3325700 15.9     3.37     3.70    26.94    78.16
 dbt_tas_replicate_communicate_ 3325700 15.9     4.61     5.16    70.02    76.73
 dbt_distribution_new_expert     930220 12.2    10.81    11.97    69.38    75.95
 dbt_tas_reshape_buffer_fill    5403266 16.5    63.75    73.25    63.75    73.25
 mp_waitall_2                   ******* 17.4    61.94    69.68    61.94    69.68
 mp_cart_sub                     575697 10.0    68.63    68.87    68.63    68.87
 fm_to_local_array                  934  8.1    11.64    12.77    68.37    68.73
 dbt_communicate_buffer         8575837 13.0    13.18    15.20    53.71    65.28
 add_rs_to_ikp                  *******  9.9    62.48    64.65    62.48    64.65
 fm_trafo_rs_to_ikp               65514  9.0    42.58    43.93    61.89    64.55
 dbm_filter                     6921199 14.9    51.40    63.63    51.40    63.63
 mp_isend_dv                    ******* 17.5    38.79    62.97    38.79    62.97
 reshape_mm_template             638066 15.5    34.13    37.48    56.13    61.22
 dbt_create_3c_R1_R2                 62  8.0     4.28     4.55    39.40    61.07
 dbt_create_template            2771553  9.0    39.19    60.94    39.19    60.94
 mp_max_i                       ******* 11.6    49.53    60.89    49.53    60.89
 dbt_tas_reshape_alltoall       5403266 16.5     5.63     6.32    27.35    60.83
 mp_sum_dm3                        1070  9.0    57.43    58.82    57.43    58.82
 mp_comm_size                   ******* 16.1    44.94    58.67    44.94    58.67
 is_cell_in_index_to_cell       *******  9.8    53.87    57.20    53.87    57.20
 dbt_copy_nocomm                1683180 11.0    23.63    31.35    42.47    56.72
 rsmat_to_kp                       6444  7.2     0.10     0.11    55.47    55.52
 dbt_destroy                    ******* 11.2    47.35    50.01    50.84    53.85
 dbcsr_finalize                 1943083 10.9     9.05    11.69    41.02    52.91
 mp_cart_get                    ******* 15.9    44.87    50.32    44.87    50.32
 trafo_rs_to_ikp                   7220  8.1     4.94     5.12    48.11    49.13
 create_and_init_bs_env_for_gw        1  6.0     0.00     0.00    48.98    48.98
 dbm_scale                      ******* 12.9    34.73    47.30    34.73    47.30
 dbm_add                        4800206 14.9    35.03    45.55    35.03    45.55
 local_dbt_to_global_mat          87451  9.0     0.87     1.05    33.87    43.32
 cp_fm_start_copy_general        230400  7.3     2.08     3.82    41.85    42.41
 dbt_create_new                  465110 11.7     7.09     8.11    38.05    41.52
 add_ikp_to_all_rs                 6606  8.0     4.46     4.61    38.76    40.04
 mp_comm_rank                   ******* 16.1    33.85    37.99    33.85    37.99
 cp_cfm_heevd                      4896  7.6    36.65    36.85    36.65    36.85
 local_matrix_to_global_matrix    87451 10.0     0.37     0.41    26.70    36.06
 dbt_tas_reshape_get_coord      5403266 16.5    30.58    34.36    30.58    34.36
 create_and_init_bs_env               1  5.0     0.00     0.00    33.62    33.62
 compute_cfm_mo_coeff_kp_and_ei       1  6.0     0.01     0.01    33.61    33.61
 dbcsr_filter_anytype            661712 11.0     3.82     4.14    20.37    30.04
 mp_allgather_i                  460800  8.3    27.03    28.69    27.03    28.69
 mp_bcast_i                     ******* 18.0    25.17    28.64    25.17    28.64
 dos_pdos_ldos                        1  5.0     0.01     0.01    28.39    28.43
 soc                                  1  5.0     0.00     0.00    27.52    27.52
 H_KS_spinor_kp                       1  6.0     0.02     0.02    27.46    27.47
 dbcsr_merge_all                 737469 11.7    15.17    19.99    20.38    26.48
 SOC_ev                            2148  6.0     0.02     0.03    26.30    26.34
 destroy_t_2d                        62  8.0     5.59     6.40    24.88    26.08
 compute_3c_integrals                 1  7.0     0.09     0.10    26.05    26.05
 dbt_reserve_blocks_template    1683180 12.0     5.92     8.34    18.84    25.37
 build_3c_integrals                   1  8.0    20.47    22.58    21.62    23.55
 dbcsr_create_new               1679132  9.8    13.06    14.09    20.04    21.64
 mp_isend_im2                   ******* 13.8     2.93    20.72     2.93    20.72
 mp_sum_i                       4343224 15.9    18.10    20.59    18.10    20.59
 mp_isend_lm2                   ******* 18.3    15.84    18.19    15.84    18.19
 power                            13668  8.0    15.10    15.41    15.10    15.41
 set_blocks                       87451 11.0     2.62     4.19     8.27    15.22
 cp_cfm_geeig_canon                1074  7.0     0.01     0.01    14.51    14.52
 get_data                        146072 11.0     7.00    13.79     7.40    14.21
 rskp_transform                   83244  7.1     0.35    13.86     0.35    13.86
 dbt_tas_merge_alltoall         1504338 16.0     1.80     2.00     7.23    13.79
 mp_irecv_lm2                   ******* 18.3    10.08    12.18    10.08    12.18
 dbt_tas_merge_communicate_buff 1504338 16.0     2.00     2.24     9.16    11.17
 mp_cart_rank                   ******* 15.9     8.57    11.09     8.57    11.09
 dbcsr_work_create              1191766 10.2     6.36     7.68     9.06    10.67
 copy_fm_to_dbcsr_bc             223071 10.3     2.78     3.02     9.83    10.66
 mp_irecv_dv                    ******* 17.5     9.21    10.59     9.21    10.59
 trafo_V_xc_R_to_kp                   1  7.0     0.01     0.01    10.50    10.51
 dbcsr_iterator_start           4219508 10.8     8.70     9.05     9.98    10.34
 send_sizes_1                    146072 11.0     0.19     0.21     9.12    10.30
 qs_ks_update_qs_env                 75  5.0     0.00     0.00     9.55     9.65
 mp_bcast_iv                     921636  8.3     8.44     9.44     8.44     9.44
 get_Minv_Vtr_Minv_R                  1  8.0     0.01     0.01     9.39     9.42
 qs_ks_build_kohn_sham_matrix        78  7.0     0.03     0.03     9.30     9.39
 rebuild_ks_matrix                   75  6.0     0.00     0.00     8.94     9.03
 send_sizes_2                    146072 11.0     0.19     0.21     8.47     8.86
 dbcsr_work_destroy_all         1191766 11.1     5.01     6.24     7.23     8.85
 dbcsr_set                      1585179 10.4     1.55     1.63     7.50     8.35
 transfer_pw2rs                     391 10.6     0.00     0.00     8.09     8.28
 sum_up_and_integrate                78  8.0     0.00     0.00     1.13     7.94
 integrate_v_rspace                  78  9.0     0.00     0.02     1.12     7.94
 transfer_pw2rs_250                 157 11.0     0.29     0.39     7.67     7.89
 dbt_buffer_get_index           ******* 16.8     6.83     7.77     6.83     7.77
 integrate_vhg0_rspace               78  8.0     0.00     0.00     7.22     7.41
 transfer_rs2pw                     384  8.4     0.00     0.00     7.15     7.29
 qs_rho_update_rho_low               76  5.0     0.00     0.00     7.13     7.13
 calculate_rho_elec                  76  6.0     0.00     0.01     7.12     7.13
 comm_data                        87451 11.0     0.34     2.64     4.93     7.05
 dbcsr_make_index_exist         1679132 10.8     6.43     7.01     6.43     7.01
 transfer_rs2pw_250                 156 10.0     0.37     0.40     6.80     6.99
 density_rs2pw                       76  7.0     0.00     0.00     6.78     6.92
 grid_integrate_task_list            78 10.0     0.10     6.91     0.10     6.91
 mp_sendrecv_dv                   73344 10.4     6.69     6.84     6.69     6.84
 dbcsr_zero                     1585179 11.4     5.96     6.72     5.96     6.72
 dbt_copy_matrix_to_tensor       146072 10.0     2.10     2.40     6.03     6.68
 mp_dims_create                 ******* 14.3     5.82     6.67     5.82     6.67
 dbcsr_data_release             ******* 11.7     5.81     6.63     5.81     6.63
 reserve_blocks                  146072 11.0     0.76     0.83     5.90     6.57
 dbcsr_iterator_stop            4219508 10.8     4.98     5.14     6.03     6.19
 comm_size                        87451 11.0     0.18     0.21     5.94     6.14
 grid_collocate_task_list            76  7.0     0.34     6.13     0.34     6.13
 transform_dmat                   38400  8.0     0.14     6.03     0.14     6.03
 dbcsr_data_new                 ******* 11.1     4.79     5.30     4.79     5.30
 dbcsr_destroy                  1560637  9.6     2.68     2.84     4.63     5.13
 mp_bcast_im                     460800  8.3     3.76     4.98     3.76     4.98
 fill_buffer                      87451 11.0     3.72     4.44     3.96     4.67
 dbt_distribution_destroy        930220 12.2     3.34     3.63     4.27     4.62
 heuristic_RI_regularization          1  7.0     0.00     0.00     4.61     4.61
 setup_parallelization_Delta_R        1  7.0     0.00     0.00     4.35     4.35
 compute_n_tensor_ops_Delta_R         1  8.0     1.18     2.02     4.35     4.35
 copy_dbcsr_to_fm_bc             287809  9.0     1.92     2.18     3.90     4.16
 get_coord                        87451 11.0     1.13     1.21     3.23     3.84
 dbcsr_reserve_blocks            592843 12.2     1.92     2.92     2.32     3.53
 tree_to_linear_d                592560 12.6     2.89     3.49     2.89     3.49
 dbt_reserve_blocks_matrix_to_t  146072 11.0     1.01     1.10     2.98     3.37
 mp_irecv_im2                   4609891 13.8     2.45     3.35     2.45     3.35
 mp_sum_dv                        72188  8.9     2.34     3.28     2.34     3.28
 mp_sum_iv                         2172  9.0     1.97     3.17     1.97     3.17
 dbcsr_copy                      195494 10.0     0.99     1.15     2.08     2.87
 quick_finalize                  454297 10.3     1.16     1.59     1.97     2.78
 write_kpoints_restart               75  5.0     0.00     0.02     2.78     2.78
 dbt_copy_tensor_to_matrix        87451 10.0     0.66     0.72     2.55     2.78
 dbcsr_reserve_all_blocks        310522 11.5     0.46     0.53     1.42     2.36
 mp_max_l                        752193 13.5     1.52     1.95     1.52     1.95
 dbcsr_iterator_seek            4219508 11.8     1.28     1.67     1.28     1.67
 compute_proj_mo_on_kind           1074  6.0     0.02     0.03     1.60     1.66
 fill_mat_local                  146072 11.0     0.98     1.21     1.33     1.57
 dbcsr_copy_into_existing         76999 10.0     0.44     1.08     0.87     1.52
 setup_cells_3c                       1  7.0     0.03     0.03     1.51     1.51
 build_3c_integral_block           8883  8.0     0.69     1.28     1.30     1.48
 build_2c_integrals                  34 10.0     0.08     0.64     0.21     1.46
 destroy_t_1d                        98  8.0     0.40     0.43     1.29     1.42
 dbt_create_2c_R                     98  8.0     0.19     0.22     1.34     1.41
 compute_V_xc                         1  7.0     0.00     0.00     1.40     1.40
 merge_index                     737469 12.7     1.04     1.38     1.04     1.38
 dbcsr_sort_indices             1197861 12.6     0.58     1.33     0.58     1.33
 add_to_DOS_PDOS                   4296  6.5     1.29     1.31     1.29     1.31
 -------------------------------------------------------------------------------

 The number of warnings for this run is : 2
 
 -------------------------------------------------------------------------------
  **** **** ******  **  PROGRAM ENDED AT                 2024-12-20 21:47:48.230
 ***** ** ***  *** **   PROGRAM RAN ON                              i02r05c06s09
 **    ****   ******    PROGRAM RAN BY                                   di38fab
 ***** **    ** ** **   PROGRAM PROCESS ID                               3549550
  **** **  *******  **  PROGRAM STOPPED IN /hppfs/scratch/04/di38fab/04_TMD/GROU
                                           PSIZEtest/GS2
